<?xml version="1.0" encoding="UTF-8"?>

<!-- generated on 2022-02-08 10:47:02 by Eclipse SUMO sumo Version 1.10.0
<configuration xmlns:xsi="http://www.w3.org/2001/XMLSchema-instance" xsi:noNamespaceSchemaLocation="http://sumo.dlr.de/xsd/sumoConfiguration.xsd">

    <input>
        <net-file value="C:\Users\Marcus\Desktop\Hauptordner\Studium\Masterstudium\3.%20Semester\Projekt_Sim-Opt\Traffic_Simulation\GridNetwork\2x3net.net.xml"/>
        <route-files value="C:\Users\Marcus\Desktop\Hauptordner\Studium\Masterstudium\3.%20Semester\Projekt_Sim-Opt\Traffic_Simulation\GridNetwork\2x3Routes.xml"/>
        <additional-files value="C:\Users\Marcus\Desktop\Hauptordner\Studium\Masterstudium\3.%20Semester\Projekt_Sim-Opt\Traffic_Simulation\GridNetwork\additionals.xml"/>
    </input>

    <output>
        <tripinfo-output value="../tripinfo.xml"/>
        <statistic-output value="../statistics.xml"/>
    </output>

    <report>
        <no-step-log value="true"/>
    </report>

    <traci_server>
        <remote-port value="54920"/>
    </traci_server>

</configuration>
-->

<tripinfos xmlns:xsi="http://www.w3.org/2001/XMLSchema-instance" xsi:noNamespaceSchemaLocation="http://sumo.dlr.de/xsd/tripinfo_file.xsd">
    <tripinfo id="2.0" depart="19.00" departLane="N2A2_0" departPos="5.10" departSpeed="0.00" departDelay="0.00" arrival="195.00" arrivalLane="B2S2_0" arrivalPos="492.80" arrivalSpeed="9.97" duration="176.00" routeLength="1494.90" waitingTime="6.00" waitingCount="2" stopTime="0.00" timeLoss="26.40" rerouteNo="0" devices="tripinfo_2.0" vType="paperVehicle" speedFactor="0.83" vaporized=""/>
    <tripinfo id="2.1" depart="22.00" departLane="N2A2_0" departPos="5.10" departSpeed="0.00" departDelay="0.00" arrival="197.00" arrivalLane="B2S2_0" arrivalPos="492.80" arrivalSpeed="9.55" duration="175.00" routeLength="1494.90" waitingTime="4.00" waitingCount="2" stopTime="0.00" timeLoss="25.50" rerouteNo="0" devices="tripinfo_2.1" vType="paperVehicle" speedFactor="1.05" vaporized=""/>
    <tripinfo id="2.2" depart="25.00" departLane="N2A2_0" departPos="5.10" departSpeed="0.00" departDelay="2.00" arrival="200.00" arrivalLane="B2S2_0" arrivalPos="492.80" arrivalSpeed="8.94" duration="175.00" routeLength="1494.90" waitingTime="2.00" waitingCount="2" stopTime="0.00" timeLoss="24.79" rerouteNo="0" devices="tripinfo_2.2" vType="paperVehicle" speedFactor="0.89" vaporized=""/>
    <tripinfo id="3.0" depart="59.00" departLane="N3A3_0" departPos="5.10" departSpeed="0.00" departDelay="0.00" arrival="235.00" arrivalLane="B3S3_0" arrivalPos="492.80" arrivalSpeed="9.05" duration="176.00" routeLength="1494.90" waitingTime="8.00" waitingCount="2" stopTime="0.00" timeLoss="26.43" rerouteNo="0" devices="tripinfo_3.0" vType="paperVehicle" speedFactor="0.98" vaporized=""/>
    <tripinfo id="3.1" depart="63.00" departLane="N3A3_0" departPos="5.10" departSpeed="0.00" departDelay="0.00" arrival="237.00" arrivalLane="B3S3_0" arrivalPos="492.80" arrivalSpeed="9.86" duration="174.00" routeLength="1494.90" waitingTime="1.00" waitingCount="1" stopTime="0.00" timeLoss="24.38" rerouteNo="0" devices="tripinfo_3.1" vType="paperVehicle" speedFactor="0.87" vaporized=""/>
    <tripinfo id="2.3" depart="43.00" departLane="N2A2_0" departPos="5.10" departSpeed="0.00" departDelay="0.00" arrival="270.00" arrivalLane="B2S2_0" arrivalPos="492.80" arrivalSpeed="9.81" duration="227.00" routeLength="1494.90" waitingTime="56.00" waitingCount="2" stopTime="0.00" timeLoss="76.75" rerouteNo="0" devices="tripinfo_2.3" vType="paperVehicle" speedFactor="0.94" vaporized=""/>
    <tripinfo id="2.4" depart="81.00" departLane="N2A2_0" departPos="5.10" departSpeed="0.00" departDelay="0.00" arrival="272.00" arrivalLane="B2S2_0" arrivalPos="492.80" arrivalSpeed="9.53" duration="191.00" routeLength="1494.90" waitingTime="20.00" waitingCount="2" stopTime="0.00" timeLoss="40.76" rerouteNo="0" devices="tripinfo_2.4" vType="paperVehicle" speedFactor="1.15" vaporized=""/>
    <tripinfo id="6.0" depart="2.00" departLane="N1A1_0" departPos="5.10" departSpeed="0.00" departDelay="0.00" arrival="278.00" arrivalLane="B3E2_0" arrivalPos="496.00" arrivalSpeed="9.13" duration="276.00" routeLength="2495.93" waitingTime="1.00" waitingCount="1" stopTime="0.00" timeLoss="25.04" rerouteNo="0" devices="tripinfo_6.0" vType="paperVehicle" speedFactor="1.06" vaporized=""/>
    <tripinfo id="6.1" depart="7.00" departLane="N1A1_0" departPos="5.10" departSpeed="0.00" departDelay="0.00" arrival="281.00" arrivalLane="B3E2_0" arrivalPos="496.00" arrivalSpeed="8.70" duration="274.00" routeLength="2495.93" waitingTime="0.00" waitingCount="0" stopTime="0.00" timeLoss="23.27" rerouteNo="0" devices="tripinfo_6.1" vType="paperVehicle" speedFactor="1.01" vaporized=""/>
    <tripinfo id="6.2" depart="10.00" departLane="N1A1_0" departPos="5.10" departSpeed="0.00" departDelay="1.00" arrival="284.00" arrivalLane="B3E2_0" arrivalPos="496.00" arrivalSpeed="9.55" duration="274.00" routeLength="2495.93" waitingTime="0.00" waitingCount="0" stopTime="0.00" timeLoss="23.43" rerouteNo="0" devices="tripinfo_6.2" vType="paperVehicle" speedFactor="1.08" vaporized=""/>
    <tripinfo id="4.0" depart="7.00" departLane="W1A1_0" departPos="5.10" departSpeed="0.00" departDelay="0.00" arrival="285.00" arrivalLane="A3E1_0" arrivalPos="496.00" arrivalSpeed="8.91" duration="278.00" routeLength="1994.90" waitingTime="56.00" waitingCount="1" stopTime="0.00" timeLoss="78.36" rerouteNo="0" devices="tripinfo_4.0" vType="paperVehicle" speedFactor="0.94" vaporized=""/>
    <tripinfo id="6.3" depart="15.00" departLane="N1A1_0" departPos="5.10" departSpeed="0.00" departDelay="0.00" arrival="286.00" arrivalLane="B3E2_0" arrivalPos="496.00" arrivalSpeed="9.02" duration="271.00" routeLength="2495.93" waitingTime="0.00" waitingCount="0" stopTime="0.00" timeLoss="20.99" rerouteNo="0" devices="tripinfo_6.3" vType="paperVehicle" speedFactor="1.03" vaporized=""/>
    <tripinfo id="4.1" depart="30.00" departLane="W1A1_0" departPos="5.10" departSpeed="0.00" departDelay="0.00" arrival="288.00" arrivalLane="A3E1_0" arrivalPos="496.00" arrivalSpeed="9.26" duration="258.00" routeLength="1994.90" waitingTime="35.00" waitingCount="1" stopTime="0.00" timeLoss="57.69" rerouteNo="0" devices="tripinfo_4.1" vType="paperVehicle" speedFactor="0.86" vaporized=""/>
    <tripinfo id="1.0" depart="55.00" departLane="N1A1_0" departPos="5.10" departSpeed="0.00" departDelay="10.00" arrival="293.00" arrivalLane="B1S1_0" arrivalPos="492.80" arrivalSpeed="8.95" duration="238.00" routeLength="1494.90" waitingTime="70.00" waitingCount="1" stopTime="0.00" timeLoss="87.86" rerouteNo="0" devices="tripinfo_1.0" vType="paperVehicle" speedFactor="1.16" vaporized=""/>
    <tripinfo id="2.5" depart="116.00" departLane="N2A2_0" departPos="5.10" departSpeed="0.00" departDelay="0.00" arrival="294.00" arrivalLane="B2S2_0" arrivalPos="492.80" arrivalSpeed="9.83" duration="178.00" routeLength="1494.90" waitingTime="9.00" waitingCount="1" stopTime="0.00" timeLoss="27.84" rerouteNo="0" devices="tripinfo_2.5" vType="paperVehicle" speedFactor="1.00" vaporized=""/>
    <tripinfo id="6.4" depart="28.00" departLane="N1A1_0" departPos="5.10" departSpeed="0.00" departDelay="0.00" arrival="298.00" arrivalLane="B3E2_0" arrivalPos="496.00" arrivalSpeed="8.83" duration="270.00" routeLength="2495.93" waitingTime="0.00" waitingCount="0" stopTime="0.00" timeLoss="19.96" rerouteNo="0" devices="tripinfo_6.4" vType="paperVehicle" speedFactor="0.94" vaporized=""/>
    <tripinfo id="6.5" depart="33.00" departLane="N1A1_0" departPos="5.10" departSpeed="0.00" departDelay="0.00" arrival="304.00" arrivalLane="B3E2_0" arrivalPos="496.00" arrivalSpeed="9.40" duration="271.00" routeLength="2495.93" waitingTime="0.00" waitingCount="0" stopTime="0.00" timeLoss="20.76" rerouteNo="0" devices="tripinfo_6.5" vType="paperVehicle" speedFactor="1.09" vaporized=""/>
    <tripinfo id="4.2" depart="39.00" departLane="W1A1_0" departPos="5.10" departSpeed="0.00" departDelay="0.00" arrival="304.00" arrivalLane="A3E1_0" arrivalPos="496.00" arrivalSpeed="8.79" duration="265.00" routeLength="1994.90" waitingTime="41.00" waitingCount="2" stopTime="0.00" timeLoss="64.91" rerouteNo="0" devices="tripinfo_4.2" vType="paperVehicle" speedFactor="1.12" vaporized=""/>
    <tripinfo id="6.6" depart="36.00" departLane="N1A1_0" departPos="5.10" departSpeed="0.00" departDelay="2.00" arrival="306.00" arrivalLane="B3E2_0" arrivalPos="496.00" arrivalSpeed="9.62" duration="270.00" routeLength="2495.93" waitingTime="0.00" waitingCount="0" stopTime="0.00" timeLoss="19.71" rerouteNo="0" devices="tripinfo_6.6" vType="paperVehicle" speedFactor="1.03" vaporized=""/>
    <tripinfo id="4.3" depart="50.00" departLane="W1A1_0" departPos="5.10" departSpeed="0.00" departDelay="0.00" arrival="306.00" arrivalLane="A3E1_0" arrivalPos="496.00" arrivalSpeed="9.86" duration="256.00" routeLength="1994.90" waitingTime="32.00" waitingCount="2" stopTime="0.00" timeLoss="56.49" rerouteNo="0" devices="tripinfo_4.3" vType="paperVehicle" speedFactor="1.02" vaporized=""/>
    <tripinfo id="1.1" depart="81.00" departLane="N1A1_0" departPos="5.10" departSpeed="0.00" departDelay="4.00" arrival="309.00" arrivalLane="B1S1_0" arrivalPos="492.80" arrivalSpeed="8.82" duration="228.00" routeLength="1494.90" waitingTime="45.00" waitingCount="2" stopTime="0.00" timeLoss="77.89" rerouteNo="0" devices="tripinfo_1.1" vType="paperVehicle" speedFactor="1.18" vaporized=""/>
    <tripinfo id="6.7" depart="39.00" departLane="N1A1_0" departPos="5.10" departSpeed="0.00" departDelay="1.00" arrival="310.00" arrivalLane="B3E2_0" arrivalPos="496.00" arrivalSpeed="9.38" duration="271.00" routeLength="2495.93" waitingTime="0.00" waitingCount="0" stopTime="0.00" timeLoss="20.63" rerouteNo="0" devices="tripinfo_6.7" vType="paperVehicle" speedFactor="1.05" vaporized=""/>
    <tripinfo id="6.8" depart="42.00" departLane="N1A1_0" departPos="5.10" departSpeed="0.00" departDelay="3.00" arrival="314.00" arrivalLane="B3E2_0" arrivalPos="496.00" arrivalSpeed="8.77" duration="272.00" routeLength="2495.93" waitingTime="0.00" waitingCount="0" stopTime="0.00" timeLoss="21.45" rerouteNo="0" devices="tripinfo_6.8" vType="paperVehicle" speedFactor="0.99" vaporized=""/>
    <tripinfo id="4.4" depart="82.00" departLane="W1A1_0" departPos="5.10" departSpeed="0.00" departDelay="0.00" arrival="331.00" arrivalLane="A3E1_0" arrivalPos="496.00" arrivalSpeed="9.18" duration="249.00" routeLength="1994.90" waitingTime="20.00" waitingCount="3" stopTime="0.00" timeLoss="49.43" rerouteNo="0" devices="tripinfo_4.4" vType="paperVehicle" speedFactor="1.01" vaporized=""/>
    <tripinfo id="3.2" depart="168.00" departLane="N3A3_0" departPos="5.10" departSpeed="0.00" departDelay="0.00" arrival="342.00" arrivalLane="B3S3_0" arrivalPos="492.80" arrivalSpeed="8.87" duration="174.00" routeLength="1494.90" waitingTime="7.00" waitingCount="1" stopTime="0.00" timeLoss="24.51" rerouteNo="0" devices="tripinfo_3.2" vType="paperVehicle" speedFactor="0.98" vaporized=""/>
    <tripinfo id="5.0" depart="57.00" departLane="W2B1_0" departPos="5.10" departSpeed="0.00" departDelay="0.00" arrival="353.00" arrivalLane="B3E2_0" arrivalPos="496.00" arrivalSpeed="9.15" duration="296.00" routeLength="1994.90" waitingTime="67.00" waitingCount="3" stopTime="0.00" timeLoss="96.06" rerouteNo="0" devices="tripinfo_5.0" vType="paperVehicle" speedFactor="1.01" vaporized=""/>
    <tripinfo id="5.1" depart="60.00" departLane="W2B1_0" departPos="5.10" departSpeed="0.00" departDelay="1.00" arrival="355.00" arrivalLane="B3E2_0" arrivalPos="496.00" arrivalSpeed="9.85" duration="295.00" routeLength="1994.90" waitingTime="63.00" waitingCount="3" stopTime="0.00" timeLoss="95.29" rerouteNo="0" devices="tripinfo_5.1" vType="paperVehicle" speedFactor="0.89" vaporized=""/>
    <tripinfo id="5.2" depart="126.00" departLane="W2B1_0" departPos="5.10" departSpeed="0.00" departDelay="0.00" arrival="365.00" arrivalLane="B3E2_0" arrivalPos="496.00" arrivalSpeed="8.84" duration="239.00" routeLength="1994.90" waitingTime="19.00" waitingCount="1" stopTime="0.00" timeLoss="39.21" rerouteNo="0" devices="tripinfo_5.2" vType="paperVehicle" speedFactor="1.02" vaporized=""/>
    <tripinfo id="5.3" depart="129.00" departLane="W2B1_0" departPos="5.10" departSpeed="0.00" departDelay="1.00" arrival="368.00" arrivalLane="B3E2_0" arrivalPos="496.00" arrivalSpeed="8.97" duration="239.00" routeLength="1994.90" waitingTime="17.00" waitingCount="1" stopTime="0.00" timeLoss="38.65" rerouteNo="0" devices="tripinfo_5.3" vType="paperVehicle" speedFactor="1.10" vaporized=""/>
    <tripinfo id="1.2" depart="133.00" departLane="N1A1_0" departPos="5.10" departSpeed="0.00" departDelay="9.00" arrival="369.00" arrivalLane="B1S1_0" arrivalPos="492.80" arrivalSpeed="9.63" duration="236.00" routeLength="1494.90" waitingTime="33.00" waitingCount="4" stopTime="0.00" timeLoss="86.12" rerouteNo="0" devices="tripinfo_1.2" vType="paperVehicle" speedFactor="1.17" vaporized=""/>
    <tripinfo id="5.4" depart="136.00" departLane="W2B1_0" departPos="5.10" departSpeed="0.00" departDelay="0.00" arrival="370.00" arrivalLane="B3E2_0" arrivalPos="496.00" arrivalSpeed="8.84" duration="234.00" routeLength="1994.90" waitingTime="14.00" waitingCount="1" stopTime="0.00" timeLoss="33.89" rerouteNo="0" devices="tripinfo_5.4" vType="paperVehicle" speedFactor="1.00" vaporized=""/>
    <tripinfo id="5.5" depart="139.00" departLane="W2B1_0" departPos="5.10" departSpeed="0.00" departDelay="2.00" arrival="372.00" arrivalLane="B3E2_0" arrivalPos="496.00" arrivalSpeed="9.67" duration="233.00" routeLength="1994.90" waitingTime="13.00" waitingCount="1" stopTime="0.00" timeLoss="33.10" rerouteNo="0" devices="tripinfo_5.5" vType="paperVehicle" speedFactor="0.90" vaporized=""/>
    <tripinfo id="2.6" depart="142.00" departLane="N2A2_0" departPos="5.10" departSpeed="0.00" departDelay="0.00" arrival="372.00" arrivalLane="B2S2_0" arrivalPos="492.80" arrivalSpeed="9.76" duration="230.00" routeLength="1494.90" waitingTime="59.00" waitingCount="2" stopTime="0.00" timeLoss="79.96" rerouteNo="0" devices="tripinfo_2.6" vType="paperVehicle" speedFactor="0.97" vaporized=""/>
    <tripinfo id="5.6" depart="142.00" departLane="W2B1_0" departPos="5.10" departSpeed="0.00" departDelay="2.00" arrival="374.00" arrivalLane="B3E2_0" arrivalPos="496.00" arrivalSpeed="9.03" duration="232.00" routeLength="1994.90" waitingTime="11.00" waitingCount="1" stopTime="0.00" timeLoss="32.31" rerouteNo="0" devices="tripinfo_5.6" vType="paperVehicle" speedFactor="1.02" vaporized=""/>
    <tripinfo id="5.7" depart="150.00" departLane="W2B1_0" departPos="5.10" departSpeed="0.00" departDelay="0.00" arrival="377.00" arrivalLane="B3E2_0" arrivalPos="496.00" arrivalSpeed="8.81" duration="227.00" routeLength="1994.90" waitingTime="5.00" waitingCount="1" stopTime="0.00" timeLoss="26.74" rerouteNo="0" devices="tripinfo_5.7" vType="paperVehicle" speedFactor="0.94" vaporized=""/>
    <tripinfo id="1.3" depart="163.00" departLane="N1A1_0" departPos="5.10" departSpeed="0.00" departDelay="2.00" arrival="393.00" arrivalLane="B1S1_0" arrivalPos="492.80" arrivalSpeed="8.78" duration="230.00" routeLength="1494.90" waitingTime="24.00" waitingCount="2" stopTime="0.00" timeLoss="80.43" rerouteNo="0" devices="tripinfo_1.3" vType="paperVehicle" speedFactor="1.04" vaporized=""/>
    <tripinfo id="3.3" depart="176.00" departLane="N3A3_0" departPos="5.10" departSpeed="0.00" departDelay="0.00" arrival="395.00" arrivalLane="B3S3_0" arrivalPos="492.80" arrivalSpeed="9.05" duration="219.00" routeLength="1494.90" waitingTime="47.00" waitingCount="2" stopTime="0.00" timeLoss="69.30" rerouteNo="0" devices="tripinfo_3.3" vType="paperVehicle" speedFactor="1.09" vaporized=""/>
    <tripinfo id="3.4" depart="186.00" departLane="N3A3_0" departPos="5.10" departSpeed="0.00" departDelay="0.00" arrival="397.00" arrivalLane="B3S3_0" arrivalPos="492.80" arrivalSpeed="9.57" duration="211.00" routeLength="1494.90" waitingTime="40.00" waitingCount="2" stopTime="0.00" timeLoss="61.44" rerouteNo="0" devices="tripinfo_3.4" vType="paperVehicle" speedFactor="1.02" vaporized=""/>
    <tripinfo id="1.4" depart="175.00" departLane="N1A1_0" departPos="5.10" departSpeed="0.00" departDelay="10.00" arrival="404.00" arrivalLane="B1S1_0" arrivalPos="492.80" arrivalSpeed="9.96" duration="229.00" routeLength="1494.90" waitingTime="22.00" waitingCount="2" stopTime="0.00" timeLoss="78.85" rerouteNo="0" devices="tripinfo_1.4" vType="paperVehicle" speedFactor="0.94" vaporized=""/>
    <tripinfo id="6.9" depart="46.00" departLane="N1A1_0" departPos="5.10" departSpeed="0.00" departDelay="6.00" arrival="406.00" arrivalLane="B3E2_0" arrivalPos="496.00" arrivalSpeed="9.49" duration="360.00" routeLength="2495.93" waitingTime="81.00" waitingCount="2" stopTime="0.00" timeLoss="109.26" rerouteNo="0" devices="tripinfo_6.9" vType="paperVehicle" speedFactor="0.93" vaporized=""/>
    <tripinfo id="1.5" depart="178.00" departLane="N1A1_0" departPos="5.10" departSpeed="0.00" departDelay="12.00" arrival="406.00" arrivalLane="B1S1_0" arrivalPos="492.80" arrivalSpeed="9.11" duration="228.00" routeLength="1494.90" waitingTime="21.00" waitingCount="2" stopTime="0.00" timeLoss="78.30" rerouteNo="0" devices="tripinfo_1.5" vType="paperVehicle" speedFactor="1.06" vaporized=""/>
    <tripinfo id="6.10" depart="49.00" departLane="N1A1_0" departPos="5.10" departSpeed="0.00" departDelay="8.00" arrival="408.00" arrivalLane="B3E2_0" arrivalPos="496.00" arrivalSpeed="9.90" duration="359.00" routeLength="2495.93" waitingTime="81.00" waitingCount="2" stopTime="0.00" timeLoss="107.91" rerouteNo="0" devices="tripinfo_6.10" vType="paperVehicle" speedFactor="0.88" vaporized=""/>
    <tripinfo id="6.11" depart="52.00" departLane="N1A1_0" departPos="5.10" departSpeed="0.00" departDelay="9.00" arrival="410.00" arrivalLane="B3E2_0" arrivalPos="496.00" arrivalSpeed="9.08" duration="358.00" routeLength="2495.93" waitingTime="75.00" waitingCount="2" stopTime="0.00" timeLoss="107.38" rerouteNo="0" devices="tripinfo_6.11" vType="paperVehicle" speedFactor="0.94" vaporized=""/>
    <tripinfo id="6.12" depart="60.00" departLane="N1A1_0" departPos="5.10" departSpeed="0.00" departDelay="0.00" arrival="412.00" arrivalLane="B3E2_0" arrivalPos="496.00" arrivalSpeed="9.34" duration="352.00" routeLength="2495.93" waitingTime="65.00" waitingCount="3" stopTime="0.00" timeLoss="101.38" rerouteNo="0" devices="tripinfo_6.12" vType="paperVehicle" speedFactor="0.83" vaporized=""/>
    <tripinfo id="6.13" depart="69.00" departLane="N1A1_0" departPos="5.10" departSpeed="0.00" departDelay="0.00" arrival="414.00" arrivalLane="B3E2_0" arrivalPos="496.00" arrivalSpeed="9.85" duration="345.00" routeLength="2495.93" waitingTime="57.00" waitingCount="3" stopTime="0.00" timeLoss="94.48" rerouteNo="0" devices="tripinfo_6.13" vType="paperVehicle" speedFactor="0.92" vaporized=""/>
    <tripinfo id="6.14" depart="72.00" departLane="N1A1_0" departPos="5.10" departSpeed="0.00" departDelay="1.00" arrival="417.00" arrivalLane="B3E2_0" arrivalPos="496.00" arrivalSpeed="9.19" duration="345.00" routeLength="2495.93" waitingTime="52.00" waitingCount="3" stopTime="0.00" timeLoss="94.77" rerouteNo="0" devices="tripinfo_6.14" vType="paperVehicle" speedFactor="0.95" vaporized=""/>
    <tripinfo id="6.15" depart="75.00" departLane="N1A1_0" departPos="5.10" departSpeed="0.00" departDelay="0.00" arrival="419.00" arrivalLane="B3E2_0" arrivalPos="496.00" arrivalSpeed="9.55" duration="344.00" routeLength="2495.93" waitingTime="48.00" waitingCount="2" stopTime="0.00" timeLoss="93.67" rerouteNo="0" devices="tripinfo_6.15" vType="paperVehicle" speedFactor="1.13" vaporized=""/>
    <tripinfo id="6.16" depart="78.00" departLane="N1A1_0" departPos="5.10" departSpeed="0.00" departDelay="2.00" arrival="422.00" arrivalLane="B3E2_0" arrivalPos="496.00" arrivalSpeed="9.50" duration="344.00" routeLength="2495.93" waitingTime="47.00" waitingCount="2" stopTime="0.00" timeLoss="92.82" rerouteNo="0" devices="tripinfo_6.16" vType="paperVehicle" speedFactor="0.93" vaporized=""/>
    <tripinfo id="6.17" depart="85.00" departLane="N1A1_0" departPos="5.10" departSpeed="0.00" departDelay="0.00" arrival="424.00" arrivalLane="B3E2_0" arrivalPos="496.00" arrivalSpeed="8.80" duration="339.00" routeLength="2495.93" waitingTime="43.00" waitingCount="2" stopTime="0.00" timeLoss="88.34" rerouteNo="0" devices="tripinfo_6.17" vType="paperVehicle" speedFactor="1.17" vaporized=""/>
    <tripinfo id="6.18" depart="88.00" departLane="N1A1_0" departPos="5.10" departSpeed="0.00" departDelay="2.00" arrival="435.00" arrivalLane="B3E2_0" arrivalPos="496.00" arrivalSpeed="9.68" duration="347.00" routeLength="2495.93" waitingTime="51.00" waitingCount="3" stopTime="0.00" timeLoss="96.86" rerouteNo="0" devices="tripinfo_6.18" vType="paperVehicle" speedFactor="0.99" vaporized=""/>
    <tripinfo id="6.19" depart="91.00" departLane="N1A1_0" departPos="5.10" departSpeed="0.00" departDelay="2.00" arrival="438.00" arrivalLane="B3E2_0" arrivalPos="496.00" arrivalSpeed="9.53" duration="347.00" routeLength="2495.93" waitingTime="47.00" waitingCount="3" stopTime="0.00" timeLoss="96.30" rerouteNo="0" devices="tripinfo_6.19" vType="paperVehicle" speedFactor="1.02" vaporized=""/>
    <tripinfo id="6.20" depart="94.00" departLane="N1A1_0" departPos="5.10" departSpeed="0.00" departDelay="3.00" arrival="440.00" arrivalLane="B3E2_0" arrivalPos="496.00" arrivalSpeed="9.91" duration="346.00" routeLength="2495.93" waitingTime="45.00" waitingCount="3" stopTime="0.00" timeLoss="95.91" rerouteNo="0" devices="tripinfo_6.20" vType="paperVehicle" speedFactor="0.97" vaporized=""/>
    <tripinfo id="2.7" depart="215.00" departLane="N2A2_0" departPos="5.10" departSpeed="0.00" departDelay="0.00" arrival="441.00" arrivalLane="B2S2_0" arrivalPos="492.80" arrivalSpeed="9.50" duration="226.00" routeLength="1494.90" waitingTime="61.00" waitingCount="1" stopTime="0.00" timeLoss="76.23" rerouteNo="0" devices="tripinfo_2.7" vType="paperVehicle" speedFactor="0.91" vaporized=""/>
    <tripinfo id="6.21" depart="97.00" departLane="N1A1_0" departPos="5.10" departSpeed="0.00" departDelay="4.00" arrival="443.00" arrivalLane="B3E2_0" arrivalPos="496.00" arrivalSpeed="9.00" duration="346.00" routeLength="2495.93" waitingTime="42.00" waitingCount="3" stopTime="0.00" timeLoss="96.00" rerouteNo="0" devices="tripinfo_6.21" vType="paperVehicle" speedFactor="1.18" vaporized=""/>
    <tripinfo id="2.8" depart="220.00" departLane="N2A2_0" departPos="5.10" departSpeed="0.00" departDelay="0.00" arrival="444.00" arrivalLane="B2S2_0" arrivalPos="492.80" arrivalSpeed="9.60" duration="224.00" routeLength="1494.90" waitingTime="54.00" waitingCount="2" stopTime="0.00" timeLoss="73.76" rerouteNo="0" devices="tripinfo_2.8" vType="paperVehicle" speedFactor="0.96" vaporized=""/>
    <tripinfo id="6.22" depart="100.00" departLane="N1A1_0" departPos="5.10" departSpeed="0.00" departDelay="6.00" arrival="445.00" arrivalLane="B3E2_0" arrivalPos="496.00" arrivalSpeed="9.31" duration="345.00" routeLength="2495.93" waitingTime="41.00" waitingCount="3" stopTime="0.00" timeLoss="95.12" rerouteNo="0" devices="tripinfo_6.22" vType="paperVehicle" speedFactor="1.10" vaporized=""/>
    <tripinfo id="6.23" depart="103.00" departLane="N1A1_0" departPos="5.10" departSpeed="0.00" departDelay="3.00" arrival="448.00" arrivalLane="B3E2_0" arrivalPos="496.00" arrivalSpeed="8.91" duration="345.00" routeLength="2495.93" waitingTime="39.00" waitingCount="3" stopTime="0.00" timeLoss="93.90" rerouteNo="0" devices="tripinfo_6.23" vType="paperVehicle" speedFactor="0.90" vaporized=""/>
    <tripinfo id="6.24" depart="106.00" departLane="N1A1_0" departPos="5.10" departSpeed="0.00" departDelay="1.00" arrival="450.00" arrivalLane="B3E2_0" arrivalPos="496.00" arrivalSpeed="9.30" duration="344.00" routeLength="2495.93" waitingTime="38.00" waitingCount="3" stopTime="0.00" timeLoss="92.92" rerouteNo="0" devices="tripinfo_6.24" vType="paperVehicle" speedFactor="0.96" vaporized=""/>
    <tripinfo id="6.25" depart="109.00" departLane="N1A1_0" departPos="5.10" departSpeed="0.00" departDelay="2.00" arrival="452.00" arrivalLane="B3E2_0" arrivalPos="496.00" arrivalSpeed="9.74" duration="343.00" routeLength="2495.93" waitingTime="36.00" waitingCount="3" stopTime="0.00" timeLoss="92.27" rerouteNo="0" devices="tripinfo_6.25" vType="paperVehicle" speedFactor="1.09" vaporized=""/>
    <tripinfo id="6.26" depart="112.00" departLane="N1A1_0" departPos="5.10" departSpeed="0.00" departDelay="3.00" arrival="454.00" arrivalLane="B3E2_0" arrivalPos="496.00" arrivalSpeed="9.93" duration="342.00" routeLength="2495.93" waitingTime="32.00" waitingCount="3" stopTime="0.00" timeLoss="90.95" rerouteNo="0" devices="tripinfo_6.26" vType="paperVehicle" speedFactor="1.04" vaporized=""/>
    <tripinfo id="6.27" depart="115.00" departLane="N1A1_0" departPos="5.10" departSpeed="0.00" departDelay="5.00" arrival="456.00" arrivalLane="B3E2_0" arrivalPos="496.00" arrivalSpeed="8.98" duration="341.00" routeLength="2495.93" waitingTime="30.00" waitingCount="3" stopTime="0.00" timeLoss="90.32" rerouteNo="0" devices="tripinfo_6.27" vType="paperVehicle" speedFactor="1.04" vaporized=""/>
    <tripinfo id="5.8" depart="171.00" departLane="W2B1_0" departPos="5.10" departSpeed="0.00" departDelay="0.00" arrival="458.00" arrivalLane="B3E2_0" arrivalPos="496.00" arrivalSpeed="9.35" duration="287.00" routeLength="1994.90" waitingTime="62.00" waitingCount="1" stopTime="0.00" timeLoss="86.98" rerouteNo="0" devices="tripinfo_5.8" vType="paperVehicle" speedFactor="0.98" vaporized=""/>
    <tripinfo id="5.9" depart="176.00" departLane="W2B1_0" departPos="5.10" departSpeed="0.00" departDelay="0.00" arrival="460.00" arrivalLane="B3E2_0" arrivalPos="496.00" arrivalSpeed="9.78" duration="284.00" routeLength="1994.90" waitingTime="58.00" waitingCount="1" stopTime="0.00" timeLoss="84.05" rerouteNo="0" devices="tripinfo_5.9" vType="paperVehicle" speedFactor="1.03" vaporized=""/>
    <tripinfo id="6.28" depart="118.00" departLane="N1A1_0" departPos="5.10" departSpeed="0.00" departDelay="5.00" arrival="462.00" arrivalLane="B3E2_0" arrivalPos="496.00" arrivalSpeed="9.96" duration="344.00" routeLength="2495.93" waitingTime="43.00" waitingCount="4" stopTime="0.00" timeLoss="93.84" rerouteNo="0" devices="tripinfo_6.28" vType="paperVehicle" speedFactor="1.09" vaporized=""/>
    <tripinfo id="1.6" depart="233.00" departLane="N1A1_0" departPos="5.10" departSpeed="0.00" departDelay="14.00" arrival="465.00" arrivalLane="B1S1_0" arrivalPos="492.80" arrivalSpeed="9.77" duration="232.00" routeLength="1494.90" waitingTime="6.00" waitingCount="2" stopTime="0.00" timeLoss="81.78" rerouteNo="0" devices="tripinfo_1.6" vType="paperVehicle" speedFactor="1.07" vaporized=""/>
    <tripinfo id="6.29" depart="121.00" departLane="N1A1_0" departPos="5.10" departSpeed="0.00" departDelay="5.00" arrival="467.00" arrivalLane="B3E2_0" arrivalPos="496.00" arrivalSpeed="8.82" duration="346.00" routeLength="2495.93" waitingTime="42.00" waitingCount="3" stopTime="0.00" timeLoss="95.06" rerouteNo="0" devices="tripinfo_6.29" vType="paperVehicle" speedFactor="0.90" vaporized=""/>
    <tripinfo id="6.30" depart="124.00" departLane="N1A1_0" departPos="5.10" departSpeed="0.00" departDelay="5.00" arrival="469.00" arrivalLane="B3E2_0" arrivalPos="496.00" arrivalSpeed="8.89" duration="345.00" routeLength="2495.93" waitingTime="39.00" waitingCount="3" stopTime="0.00" timeLoss="94.37" rerouteNo="0" devices="tripinfo_6.30" vType="paperVehicle" speedFactor="0.88" vaporized=""/>
    <tripinfo id="6.31" depart="127.00" departLane="N1A1_0" departPos="5.10" departSpeed="0.00" departDelay="7.00" arrival="472.00" arrivalLane="B3E2_0" arrivalPos="496.00" arrivalSpeed="9.64" duration="345.00" routeLength="2495.93" waitingTime="37.00" waitingCount="4" stopTime="0.00" timeLoss="93.88" rerouteNo="0" devices="tripinfo_6.31" vType="paperVehicle" speedFactor="0.85" vaporized=""/>
    <tripinfo id="6.32" depart="130.00" departLane="N1A1_0" departPos="5.10" departSpeed="0.00" departDelay="9.00" arrival="474.00" arrivalLane="B3E2_0" arrivalPos="496.00" arrivalSpeed="9.76" duration="344.00" routeLength="2495.93" waitingTime="34.00" waitingCount="3" stopTime="0.00" timeLoss="93.39" rerouteNo="0" devices="tripinfo_6.32" vType="paperVehicle" speedFactor="0.85" vaporized=""/>
    <tripinfo id="6.33" depart="136.00" departLane="N1A1_0" departPos="5.10" departSpeed="0.00" departDelay="7.00" arrival="479.00" arrivalLane="B3E2_0" arrivalPos="496.00" arrivalSpeed="9.78" duration="343.00" routeLength="2495.93" waitingTime="32.00" waitingCount="3" stopTime="0.00" timeLoss="92.43" rerouteNo="0" devices="tripinfo_6.33" vType="paperVehicle" speedFactor="1.00" vaporized=""/>
    <tripinfo id="6.34" depart="139.00" departLane="N1A1_0" departPos="5.10" departSpeed="0.00" departDelay="1.00" arrival="482.00" arrivalLane="B3E2_0" arrivalPos="496.00" arrivalSpeed="8.96" duration="343.00" routeLength="2495.93" waitingTime="30.00" waitingCount="2" stopTime="0.00" timeLoss="92.23" rerouteNo="0" devices="tripinfo_6.34" vType="paperVehicle" speedFactor="1.14" vaporized=""/>
    <tripinfo id="6.35" depart="142.00" departLane="N1A1_0" departPos="5.10" departSpeed="0.00" departDelay="0.00" arrival="484.00" arrivalLane="B3E2_0" arrivalPos="496.00" arrivalSpeed="9.06" duration="342.00" routeLength="2495.93" waitingTime="29.00" waitingCount="2" stopTime="0.00" timeLoss="91.62" rerouteNo="0" devices="tripinfo_6.35" vType="paperVehicle" speedFactor="1.08" vaporized=""/>
    <tripinfo id="6.36" depart="145.00" departLane="N1A1_0" departPos="5.10" departSpeed="0.00" departDelay="1.00" arrival="486.00" arrivalLane="B3E2_0" arrivalPos="496.00" arrivalSpeed="8.88" duration="341.00" routeLength="2495.93" waitingTime="29.00" waitingCount="2" stopTime="0.00" timeLoss="91.05" rerouteNo="0" devices="tripinfo_6.36" vType="paperVehicle" speedFactor="1.12" vaporized=""/>