<?xml version="1.0" encoding="UTF-8"?>

<!-- generated on 2022-02-02 13:38:43 by Eclipse SUMO sumo Version 1.10.0
<configuration xmlns:xsi="http://www.w3.org/2001/XMLSchema-instance" xsi:noNamespaceSchemaLocation="http://sumo.dlr.de/xsd/sumoConfiguration.xsd">

    <input>
        <net-file value="C:\Users\Marcus\Desktop\Hauptordner\Studium\Masterstudium\3.%20Semester\Projekt_Sim-Opt\Traffic_Simulation\arterial\arterialnet.net.xml"/>
        <route-files value="C:\Users\Marcus\Desktop\Hauptordner\Studium\Masterstudium\3.%20Semester\Projekt_Sim-Opt\Traffic_Simulation\arterial\arterialRoutes.xml"/>
        <additional-files value="C:\Users\Marcus\Desktop\Hauptordner\Studium\Masterstudium\3.%20Semester\Projekt_Sim-Opt\Traffic_Simulation\arterial\additionals.xml"/>
    </input>

    <output>
        <tripinfo-output value="../tripinfo.xml"/>
        <statistic-output value="../statistics.xml"/>
    </output>

    <report>
        <no-step-log value="true"/>
    </report>

    <traci_server>
        <remote-port value="65431"/>
    </traci_server>

</configuration>
-->

<tripinfos xmlns:xsi="http://www.w3.org/2001/XMLSchema-instance" xsi:noNamespaceSchemaLocation="http://sumo.dlr.de/xsd/tripinfo_file.xsd">
    <tripinfo id="5.0" depart="8.00" departLane="nO_0" departPos="5.10" departSpeed="0.00" departDelay="0.00" arrival="116.00" arrivalLane="Os_0" arrivalPos="492.80" arrivalSpeed="9.84" duration="108.00" routeLength="994.90" waitingTime="0.00" waitingCount="0" stopTime="0.00" timeLoss="8.52" rerouteNo="0" devices="tripinfo_5.0" vType="paperVehicle" speedFactor="1.06" vaporized=""/>
    <tripinfo id="2.0" depart="26.00" departLane="nC_0" departPos="5.10" departSpeed="0.00" departDelay="0.00" arrival="134.00" arrivalLane="Cs_0" arrivalPos="492.80" arrivalSpeed="9.85" duration="108.00" routeLength="994.90" waitingTime="0.00" waitingCount="0" stopTime="0.00" timeLoss="8.28" rerouteNo="0" devices="tripinfo_2.0" vType="paperVehicle" speedFactor="0.89" vaporized=""/>
    <tripinfo id="1.0" depart="11.00" departLane="nB_0" departPos="5.10" departSpeed="0.00" departDelay="0.00" arrival="135.00" arrivalLane="Bs_0" arrivalPos="492.80" arrivalSpeed="9.45" duration="124.00" routeLength="994.90" waitingTime="13.00" waitingCount="1" stopTime="0.00" timeLoss="24.13" rerouteNo="0" devices="tripinfo_1.0" vType="paperVehicle" speedFactor="0.94" vaporized=""/>
    <tripinfo id="0.0" depart="17.00" departLane="nA_0" departPos="5.10" departSpeed="0.00" departDelay="0.00" arrival="136.00" arrivalLane="As_0" arrivalPos="492.80" arrivalSpeed="9.54" duration="119.00" routeLength="994.90" waitingTime="6.00" waitingCount="1" stopTime="0.00" timeLoss="19.39" rerouteNo="0" devices="tripinfo_0.0" vType="paperVehicle" speedFactor="1.08" vaporized=""/>
    <tripinfo id="0.1" depart="20.00" departLane="nA_0" departPos="5.10" departSpeed="0.00" departDelay="2.00" arrival="138.00" arrivalLane="As_0" arrivalPos="492.80" arrivalSpeed="8.83" duration="118.00" routeLength="994.90" waitingTime="5.00" waitingCount="1" stopTime="0.00" timeLoss="18.40" rerouteNo="0" devices="tripinfo_0.1" vType="paperVehicle" speedFactor="1.03" vaporized=""/>
    <tripinfo id="0.2" depart="43.00" departLane="nA_0" departPos="5.10" departSpeed="0.00" departDelay="0.00" arrival="152.00" arrivalLane="As_0" arrivalPos="492.80" arrivalSpeed="9.00" duration="109.00" routeLength="994.90" waitingTime="0.00" waitingCount="0" stopTime="0.00" timeLoss="8.83" rerouteNo="0" devices="tripinfo_0.2" vType="paperVehicle" speedFactor="1.12" vaporized=""/>
    <tripinfo id="1.1" depart="59.00" departLane="nB_0" departPos="5.10" departSpeed="0.00" departDelay="0.00" arrival="175.00" arrivalLane="Bs_0" arrivalPos="492.80" arrivalSpeed="9.92" duration="116.00" routeLength="994.90" waitingTime="4.00" waitingCount="1" stopTime="0.00" timeLoss="16.26" rerouteNo="0" devices="tripinfo_1.1" vType="paperVehicle" speedFactor="0.94" vaporized=""/>
    <tripinfo id="2.1" depart="69.00" departLane="nC_0" departPos="5.10" departSpeed="0.00" departDelay="0.00" arrival="178.00" arrivalLane="Cs_0" arrivalPos="492.80" arrivalSpeed="9.46" duration="109.00" routeLength="994.90" waitingTime="0.00" waitingCount="0" stopTime="0.00" timeLoss="8.63" rerouteNo="0" devices="tripinfo_2.1" vType="paperVehicle" speedFactor="0.98" vaporized=""/>
    <tripinfo id="5.1" depart="25.00" departLane="nO_0" departPos="5.10" departSpeed="0.00" departDelay="0.00" arrival="185.00" arrivalLane="Os_0" arrivalPos="492.80" arrivalSpeed="9.82" duration="160.00" routeLength="994.90" waitingTime="48.00" waitingCount="1" stopTime="0.00" timeLoss="60.35" rerouteNo="0" devices="tripinfo_5.1" vType="paperVehicle" speedFactor="1.05" vaporized=""/>
    <tripinfo id="5.2" depart="28.00" departLane="nO_0" departPos="5.10" departSpeed="0.00" departDelay="2.00" arrival="187.00" arrivalLane="Os_0" arrivalPos="492.80" arrivalSpeed="9.78" duration="159.00" routeLength="994.90" waitingTime="46.00" waitingCount="1" stopTime="0.00" timeLoss="59.39" rerouteNo="0" devices="tripinfo_5.2" vType="paperVehicle" speedFactor="0.94" vaporized=""/>
    <tripinfo id="5.3" depart="31.00" departLane="nO_0" departPos="5.10" departSpeed="0.00" departDelay="1.00" arrival="190.00" arrivalLane="Os_0" arrivalPos="492.80" arrivalSpeed="9.43" duration="159.00" routeLength="994.90" waitingTime="44.00" waitingCount="1" stopTime="0.00" timeLoss="58.87" rerouteNo="0" devices="tripinfo_5.3" vType="paperVehicle" speedFactor="0.86" vaporized=""/>
    <tripinfo id="5.4" depart="40.00" departLane="nO_0" departPos="5.10" departSpeed="0.00" departDelay="0.00" arrival="192.00" arrivalLane="Os_0" arrivalPos="492.80" arrivalSpeed="8.86" duration="152.00" routeLength="994.90" waitingTime="38.00" waitingCount="1" stopTime="0.00" timeLoss="51.98" rerouteNo="0" devices="tripinfo_5.4" vType="paperVehicle" speedFactor="1.09" vaporized=""/>
    <tripinfo id="5.5" depart="43.00" departLane="nO_0" departPos="5.10" departSpeed="0.00" departDelay="2.00" arrival="194.00" arrivalLane="Os_0" arrivalPos="492.80" arrivalSpeed="9.23" duration="151.00" routeLength="994.90" waitingTime="36.00" waitingCount="1" stopTime="0.00" timeLoss="51.04" rerouteNo="0" devices="tripinfo_5.5" vType="paperVehicle" speedFactor="1.05" vaporized=""/>
    <tripinfo id="2.2" depart="75.00" departLane="nC_0" departPos="5.10" departSpeed="0.00" departDelay="0.00" arrival="195.00" arrivalLane="Cs_0" arrivalPos="492.80" arrivalSpeed="8.84" duration="120.00" routeLength="994.90" waitingTime="7.00" waitingCount="1" stopTime="0.00" timeLoss="20.23" rerouteNo="0" devices="tripinfo_2.2" vType="paperVehicle" speedFactor="0.92" vaporized=""/>
    <tripinfo id="5.6" depart="46.00" departLane="nO_0" departPos="5.10" departSpeed="0.00" departDelay="0.00" arrival="196.00" arrivalLane="Os_0" arrivalPos="492.80" arrivalSpeed="9.93" duration="150.00" routeLength="994.90" waitingTime="34.00" waitingCount="1" stopTime="0.00" timeLoss="50.15" rerouteNo="0" devices="tripinfo_5.6" vType="paperVehicle" speedFactor="0.99" vaporized=""/>
    <tripinfo id="3.0" depart="70.00" departLane="nD_0" departPos="5.10" departSpeed="0.00" departDelay="0.00" arrival="196.00" arrivalLane="Ds_0" arrivalPos="492.80" arrivalSpeed="9.00" duration="126.00" routeLength="994.90" waitingTime="13.00" waitingCount="1" stopTime="0.00" timeLoss="25.80" rerouteNo="0" devices="tripinfo_3.0" vType="paperVehicle" speedFactor="0.89" vaporized=""/>
    <tripinfo id="2.3" depart="86.00" departLane="nC_0" departPos="5.10" departSpeed="0.00" departDelay="0.00" arrival="197.00" arrivalLane="Cs_0" arrivalPos="492.80" arrivalSpeed="9.70" duration="111.00" routeLength="994.90" waitingTime="0.00" waitingCount="0" stopTime="0.00" timeLoss="11.45" rerouteNo="0" devices="tripinfo_2.3" vType="paperVehicle" speedFactor="0.93" vaporized=""/>
    <tripinfo id="5.7" depart="57.00" departLane="nO_0" departPos="5.10" departSpeed="0.00" departDelay="0.00" arrival="198.00" arrivalLane="Os_0" arrivalPos="492.80" arrivalSpeed="9.31" duration="141.00" routeLength="994.90" waitingTime="25.00" waitingCount="1" stopTime="0.00" timeLoss="41.35" rerouteNo="0" devices="tripinfo_5.7" vType="paperVehicle" speedFactor="0.88" vaporized=""/>
    <tripinfo id="5.8" depart="60.00" departLane="nO_0" departPos="5.10" departSpeed="0.00" departDelay="2.00" arrival="200.00" arrivalLane="Os_0" arrivalPos="492.80" arrivalSpeed="9.04" duration="140.00" routeLength="994.90" waitingTime="24.00" waitingCount="1" stopTime="0.00" timeLoss="40.52" rerouteNo="0" devices="tripinfo_5.8" vType="paperVehicle" speedFactor="0.94" vaporized=""/>
    <tripinfo id="5.9" depart="63.00" departLane="nO_0" departPos="5.10" departSpeed="0.00" departDelay="2.00" arrival="203.00" arrivalLane="Os_0" arrivalPos="492.80" arrivalSpeed="9.05" duration="140.00" routeLength="994.90" waitingTime="24.00" waitingCount="1" stopTime="0.00" timeLoss="39.87" rerouteNo="0" devices="tripinfo_5.9" vType="paperVehicle" speedFactor="1.16" vaporized=""/>
    <tripinfo id="5.10" depart="78.00" departLane="nO_0" departPos="5.10" departSpeed="0.00" departDelay="0.00" arrival="205.00" arrivalLane="Os_0" arrivalPos="492.80" arrivalSpeed="8.88" duration="127.00" routeLength="994.90" waitingTime="11.00" waitingCount="1" stopTime="0.00" timeLoss="27.19" rerouteNo="0" devices="tripinfo_5.10" vType="paperVehicle" speedFactor="1.13" vaporized=""/>
    <tripinfo id="5.11" depart="86.00" departLane="nO_0" departPos="5.10" departSpeed="0.00" departDelay="0.00" arrival="207.00" arrivalLane="Os_0" arrivalPos="492.80" arrivalSpeed="9.66" duration="121.00" routeLength="994.90" waitingTime="4.00" waitingCount="1" stopTime="0.00" timeLoss="21.14" rerouteNo="0" devices="tripinfo_5.11" vType="paperVehicle" speedFactor="1.18" vaporized=""/>
    <tripinfo id="5.12" depart="101.00" departLane="nO_0" departPos="5.10" departSpeed="0.00" departDelay="0.00" arrival="210.00" arrivalLane="Os_0" arrivalPos="492.80" arrivalSpeed="9.80" duration="109.00" routeLength="994.90" waitingTime="0.00" waitingCount="0" stopTime="0.00" timeLoss="9.01" rerouteNo="0" devices="tripinfo_5.12" vType="paperVehicle" speedFactor="1.17" vaporized=""/>
    <tripinfo id="0.3" depart="74.00" departLane="nA_0" departPos="5.10" departSpeed="0.00" departDelay="0.00" arrival="224.00" arrivalLane="As_0" arrivalPos="492.80" arrivalSpeed="9.29" duration="150.00" routeLength="994.90" waitingTime="37.00" waitingCount="1" stopTime="0.00" timeLoss="49.78" rerouteNo="0" devices="tripinfo_0.3" vType="paperVehicle" speedFactor="0.87" vaporized=""/>
    <tripinfo id="5.13" depart="115.00" departLane="nO_0" departPos="5.10" departSpeed="0.00" departDelay="0.00" arrival="224.00" arrivalLane="Os_0" arrivalPos="492.80" arrivalSpeed="8.75" duration="109.00" routeLength="994.90" waitingTime="0.00" waitingCount="0" stopTime="0.00" timeLoss="9.02" rerouteNo="0" devices="tripinfo_5.13" vType="paperVehicle" speedFactor="1.18" vaporized=""/>
    <tripinfo id="5.14" depart="120.00" departLane="nO_0" departPos="5.10" departSpeed="0.00" departDelay="0.00" arrival="229.00" arrivalLane="Os_0" arrivalPos="492.80" arrivalSpeed="9.61" duration="109.00" routeLength="994.90" waitingTime="0.00" waitingCount="0" stopTime="0.00" timeLoss="9.09" rerouteNo="0" devices="tripinfo_5.14" vType="paperVehicle" speedFactor="1.03" vaporized=""/>
    <tripinfo id="1.2" depart="116.00" departLane="nB_0" departPos="5.10" departSpeed="0.00" departDelay="0.00" arrival="235.00" arrivalLane="Bs_0" arrivalPos="492.80" arrivalSpeed="9.10" duration="119.00" routeLength="994.90" waitingTime="7.00" waitingCount="1" stopTime="0.00" timeLoss="19.44" rerouteNo="0" devices="tripinfo_1.2" vType="paperVehicle" speedFactor="1.10" vaporized=""/>
    <tripinfo id="3.1" depart="126.00" departLane="nD_0" departPos="5.10" departSpeed="0.00" departDelay="0.00" arrival="235.00" arrivalLane="Ds_0" arrivalPos="492.80" arrivalSpeed="9.05" duration="109.00" routeLength="994.90" waitingTime="0.00" waitingCount="0" stopTime="0.00" timeLoss="9.38" rerouteNo="0" devices="tripinfo_3.1" vType="paperVehicle" speedFactor="1.09" vaporized=""/>
    <tripinfo id="0.4" depart="125.00" departLane="nA_0" departPos="5.10" departSpeed="0.00" departDelay="0.00" arrival="244.00" arrivalLane="As_0" arrivalPos="492.80" arrivalSpeed="9.48" duration="119.00" routeLength="994.90" waitingTime="6.00" waitingCount="1" stopTime="0.00" timeLoss="19.11" rerouteNo="0" devices="tripinfo_0.4" vType="paperVehicle" speedFactor="0.96" vaporized=""/>
    <tripinfo id="2.4" depart="135.00" departLane="nC_0" departPos="5.10" departSpeed="0.00" departDelay="0.00" arrival="255.00" arrivalLane="Cs_0" arrivalPos="492.80" arrivalSpeed="8.82" duration="120.00" routeLength="994.90" waitingTime="7.00" waitingCount="1" stopTime="0.00" timeLoss="20.32" rerouteNo="0" devices="tripinfo_2.4" vType="paperVehicle" speedFactor="0.88" vaporized=""/>
    <tripinfo id="3.2" depart="163.00" departLane="nD_0" departPos="5.10" departSpeed="0.00" departDelay="0.00" arrival="275.00" arrivalLane="Ds_0" arrivalPos="492.80" arrivalSpeed="9.16" duration="112.00" routeLength="994.90" waitingTime="0.00" waitingCount="0" stopTime="0.00" timeLoss="11.70" rerouteNo="0" devices="tripinfo_3.2" vType="paperVehicle" speedFactor="1.14" vaporized=""/>
    <tripinfo id="3.3" depart="167.00" departLane="nD_0" departPos="5.10" departSpeed="0.00" departDelay="0.00" arrival="277.00" arrivalLane="Ds_0" arrivalPos="492.80" arrivalSpeed="9.97" duration="110.00" routeLength="994.90" waitingTime="0.00" waitingCount="0" stopTime="0.00" timeLoss="10.06" rerouteNo="0" devices="tripinfo_3.3" vType="paperVehicle" speedFactor="1.02" vaporized=""/>
    <tripinfo id="3.4" depart="195.00" departLane="nD_0" departPos="5.10" departSpeed="0.00" departDelay="0.00" arrival="304.00" arrivalLane="Ds_0" arrivalPos="492.80" arrivalSpeed="9.32" duration="109.00" routeLength="994.90" waitingTime="0.00" waitingCount="0" stopTime="0.00" timeLoss="8.95" rerouteNo="0" devices="tripinfo_3.4" vType="paperVehicle" speedFactor="1.04" vaporized=""/>
    <tripinfo id="5.15" depart="131.00" departLane="nO_0" departPos="5.10" departSpeed="0.00" departDelay="0.00" arrival="305.00" arrivalLane="Os_0" arrivalPos="492.80" arrivalSpeed="9.68" duration="174.00" routeLength="994.90" waitingTime="61.00" waitingCount="1" stopTime="0.00" timeLoss="74.13" rerouteNo="0" devices="tripinfo_5.15" vType="paperVehicle" speedFactor="1.09" vaporized=""/>
    <tripinfo id="1.3" depart="135.00" departLane="nB_0" departPos="5.10" departSpeed="0.00" departDelay="0.00" arrival="306.00" arrivalLane="Bs_0" arrivalPos="492.80" arrivalSpeed="9.46" duration="171.00" routeLength="994.90" waitingTime="58.00" waitingCount="1" stopTime="0.00" timeLoss="70.68" rerouteNo="0" devices="tripinfo_1.3" vType="paperVehicle" speedFactor="0.90" vaporized=""/>
    <tripinfo id="5.16" depart="139.00" departLane="nO_0" departPos="5.10" departSpeed="0.00" departDelay="0.00" arrival="308.00" arrivalLane="Os_0" arrivalPos="492.80" arrivalSpeed="9.21" duration="169.00" routeLength="994.90" waitingTime="55.00" waitingCount="1" stopTime="0.00" timeLoss="68.78" rerouteNo="0" devices="tripinfo_5.16" vType="paperVehicle" speedFactor="0.85" vaporized=""/>
    <tripinfo id="1.4" depart="185.00" departLane="nB_0" departPos="5.10" departSpeed="0.00" departDelay="0.00" arrival="308.00" arrivalLane="Bs_0" arrivalPos="492.80" arrivalSpeed="9.29" duration="123.00" routeLength="994.90" waitingTime="9.00" waitingCount="1" stopTime="0.00" timeLoss="22.87" rerouteNo="0" devices="tripinfo_1.4" vType="paperVehicle" speedFactor="0.99" vaporized=""/>
    <tripinfo id="3.5" depart="198.00" departLane="nD_0" departPos="5.10" departSpeed="0.00" departDelay="1.00" arrival="308.00" arrivalLane="Ds_0" arrivalPos="492.80" arrivalSpeed="9.71" duration="110.00" routeLength="994.90" waitingTime="0.00" waitingCount="0" stopTime="0.00" timeLoss="9.68" rerouteNo="0" devices="tripinfo_3.5" vType="paperVehicle" speedFactor="1.02" vaporized=""/>
    <tripinfo id="1.5" depart="199.00" departLane="nB_0" departPos="5.10" departSpeed="0.00" departDelay="0.00" arrival="326.00" arrivalLane="Bs_0" arrivalPos="492.80" arrivalSpeed="9.25" duration="127.00" routeLength="994.90" waitingTime="12.00" waitingCount="1" stopTime="0.00" timeLoss="27.33" rerouteNo="0" devices="tripinfo_1.5" vType="paperVehicle" speedFactor="0.97" vaporized=""/>
    <tripinfo id="3.6" depart="221.00" departLane="nD_0" departPos="5.10" departSpeed="0.00" departDelay="0.00" arrival="345.00" arrivalLane="Ds_0" arrivalPos="492.80" arrivalSpeed="9.45" duration="124.00" routeLength="994.90" waitingTime="12.00" waitingCount="1" stopTime="0.00" timeLoss="24.33" rerouteNo="0" devices="tripinfo_3.6" vType="paperVehicle" speedFactor="0.96" vaporized=""/>
    <tripinfo id="3.7" depart="236.00" departLane="nD_0" departPos="5.10" departSpeed="0.00" departDelay="0.00" arrival="347.00" arrivalLane="Ds_0" arrivalPos="492.80" arrivalSpeed="9.57" duration="111.00" routeLength="994.90" waitingTime="0.00" waitingCount="0" stopTime="0.00" timeLoss="11.41" rerouteNo="0" devices="tripinfo_3.7" vType="paperVehicle" speedFactor="1.09" vaporized=""/>
    <tripinfo id="3.8" depart="240.00" departLane="nD_0" departPos="5.10" departSpeed="0.00" departDelay="0.00" arrival="350.00" arrivalLane="Ds_0" arrivalPos="492.80" arrivalSpeed="9.39" duration="110.00" routeLength="994.90" waitingTime="0.00" waitingCount="0" stopTime="0.00" timeLoss="10.04" rerouteNo="0" devices="tripinfo_3.8" vType="paperVehicle" speedFactor="1.03" vaporized=""/>
    <tripinfo id="4.0" depart="16.00" departLane="wO_0" departPos="5.10" departSpeed="0.00" departDelay="0.00" arrival="369.00" arrivalLane="De_0" arrivalPos="496.00" arrivalSpeed="8.79" duration="353.00" routeLength="2994.90" waitingTime="16.00" waitingCount="3" stopTime="0.00" timeLoss="53.19" rerouteNo="0" devices="tripinfo_4.0" vType="paperVehicle" speedFactor="1.01" vaporized=""/>
    <tripinfo id="4.1" depart="19.00" departLane="wO_0" departPos="5.10" departSpeed="0.00" departDelay="0.00" arrival="373.00" arrivalLane="De_0" arrivalPos="496.00" arrivalSpeed="8.96" duration="354.00" routeLength="2994.90" waitingTime="12.00" waitingCount="3" stopTime="0.00" timeLoss="53.64" rerouteNo="0" devices="tripinfo_4.1" vType="paperVehicle" speedFactor="0.83" vaporized=""/>
    <tripinfo id="4.2" depart="41.00" departLane="wO_0" departPos="5.10" departSpeed="0.00" departDelay="0.00" arrival="375.00" arrivalLane="De_0" arrivalPos="496.00" arrivalSpeed="9.77" duration="334.00" routeLength="2994.90" waitingTime="4.00" waitingCount="1" stopTime="0.00" timeLoss="33.81" rerouteNo="0" devices="tripinfo_4.2" vType="paperVehicle" speedFactor="1.03" vaporized=""/>
    <tripinfo id="5.17" depart="145.00" departLane="nO_0" departPos="5.10" departSpeed="0.00" departDelay="0.00" arrival="376.00" arrivalLane="Os_0" arrivalPos="492.80" arrivalSpeed="9.75" duration="231.00" routeLength="994.90" waitingTime="114.00" waitingCount="2" stopTime="0.00" timeLoss="130.96" rerouteNo="0" devices="tripinfo_5.17" vType="paperVehicle" speedFactor="1.10" vaporized=""/>
    <tripinfo id="5.18" depart="151.00" departLane="nO_0" departPos="5.10" departSpeed="0.00" departDelay="0.00" arrival="378.00" arrivalLane="Os_0" arrivalPos="492.80" arrivalSpeed="9.25" duration="227.00" routeLength="994.90" waitingTime="109.00" waitingCount="2" stopTime="0.00" timeLoss="127.24" rerouteNo="0" devices="tripinfo_5.18" vType="paperVehicle" speedFactor="1.00" vaporized=""/>
    <tripinfo id="5.19" depart="179.00" departLane="nO_0" departPos="5.10" departSpeed="0.00" departDelay="0.00" arrival="380.00" arrivalLane="Os_0" arrivalPos="492.80" arrivalSpeed="9.45" duration="201.00" routeLength="994.90" waitingTime="82.00" waitingCount="2" stopTime="0.00" timeLoss="101.36" rerouteNo="0" devices="tripinfo_5.19" vType="paperVehicle" speedFactor="1.12" vaporized=""/>
    <tripinfo id="5.20" depart="183.00" departLane="nO_0" departPos="5.10" departSpeed="0.00" departDelay="0.00" arrival="382.00" arrivalLane="Os_0" arrivalPos="492.80" arrivalSpeed="9.78" duration="199.00" routeLength="994.90" waitingTime="79.00" waitingCount="2" stopTime="0.00" timeLoss="99.31" rerouteNo="0" devices="tripinfo_5.20" vType="paperVehicle" speedFactor="1.02" vaporized=""/>
    <tripinfo id="5.21" depart="187.00" departLane="nO_0" departPos="5.10" departSpeed="0.00" departDelay="0.00" arrival="384.00" arrivalLane="Os_0" arrivalPos="492.80" arrivalSpeed="9.24" duration="197.00" routeLength="994.90" waitingTime="76.00" waitingCount="2" stopTime="0.00" timeLoss="97.32" rerouteNo="0" devices="tripinfo_5.21" vType="paperVehicle" speedFactor="0.94" vaporized=""/>
    <tripinfo id="2.5" depart="263.00" departLane="nC_0" departPos="5.10" departSpeed="0.00" departDelay="0.00" arrival="385.00" arrivalLane="Cs_0" arrivalPos="492.80" arrivalSpeed="9.22" duration="122.00" routeLength="994.90" waitingTime="10.00" waitingCount="1" stopTime="0.00" timeLoss="22.52" rerouteNo="0" devices="tripinfo_2.5" vType="paperVehicle" speedFactor="0.97" vaporized=""/>
    <tripinfo id="1.6" depart="266.00" departLane="nB_0" departPos="5.10" departSpeed="0.00" departDelay="0.00" arrival="392.00" arrivalLane="Bs_0" arrivalPos="492.80" arrivalSpeed="9.79" duration="126.00" routeLength="994.90" waitingTime="13.00" waitingCount="1" stopTime="0.00" timeLoss="26.03" rerouteNo="0" devices="tripinfo_1.6" vType="paperVehicle" speedFactor="1.01" vaporized=""/>
    <tripinfo id="4.3" depart="56.00" departLane="wO_0" departPos="5.10" departSpeed="0.00" departDelay="0.00" arrival="395.00" arrivalLane="De_0" arrivalPos="496.00" arrivalSpeed="9.01" duration="339.00" routeLength="2994.90" waitingTime="12.00" waitingCount="1" stopTime="0.00" timeLoss="38.63" rerouteNo="0" devices="tripinfo_4.3" vType="paperVehicle" speedFactor="0.93" vaporized=""/>
    <tripinfo id="1.7" depart="276.00" departLane="nB_0" departPos="5.10" departSpeed="0.00" departDelay="0.00" arrival="395.00" arrivalLane="Bs_0" arrivalPos="492.80" arrivalSpeed="8.71" duration="119.00" routeLength="994.90" waitingTime="5.00" waitingCount="1" stopTime="0.00" timeLoss="18.80" rerouteNo="0" devices="tripinfo_1.7" vType="paperVehicle" speedFactor="0.83" vaporized=""/>
    <tripinfo id="4.4" depart="62.00" departLane="wO_0" departPos="5.10" departSpeed="0.00" departDelay="0.00" arrival="398.00" arrivalLane="De_0" arrivalPos="496.00" arrivalSpeed="9.88" duration="336.00" routeLength="2994.90" waitingTime="8.00" waitingCount="1" stopTime="0.00" timeLoss="35.90" rerouteNo="0" devices="tripinfo_4.4" vType="paperVehicle" speedFactor="1.02" vaporized=""/>
    <tripinfo id="0.5" depart="227.00" departLane="nA_0" departPos="5.10" departSpeed="0.00" departDelay="0.00" arrival="418.00" arrivalLane="As_0" arrivalPos="492.80" arrivalSpeed="9.07" duration="191.00" routeLength="994.90" waitingTime="78.00" waitingCount="1" stopTime="0.00" timeLoss="90.87" rerouteNo="0" devices="tripinfo_0.5" vType="paperVehicle" speedFactor="1.03" vaporized=""/>
    <tripinfo id="0.6" depart="291.00" departLane="nA_0" departPos="5.10" departSpeed="0.00" departDelay="0.00" arrival="420.00" arrivalLane="As_0" arrivalPos="492.80" arrivalSpeed="8.84" duration="129.00" routeLength="994.90" waitingTime="15.00" waitingCount="1" stopTime="0.00" timeLoss="29.29" rerouteNo="0" devices="tripinfo_0.6" vType="paperVehicle" speedFactor="1.12" vaporized=""/>
    <tripinfo id="3.9" depart="264.00" departLane="nD_0" departPos="5.10" departSpeed="0.00" departDelay="0.00" arrival="426.00" arrivalLane="Ds_0" arrivalPos="492.80" arrivalSpeed="9.74" duration="162.00" routeLength="994.90" waitingTime="51.00" waitingCount="1" stopTime="0.00" timeLoss="62.15" rerouteNo="0" devices="tripinfo_3.9" vType="paperVehicle" speedFactor="1.00" vaporized=""/>
    <tripinfo id="3.10" depart="313.00" departLane="nD_0" departPos="5.10" departSpeed="0.00" departDelay="0.00" arrival="429.00" arrivalLane="Ds_0" arrivalPos="492.80" arrivalSpeed="9.27" duration="116.00" routeLength="994.90" waitingTime="1.00" waitingCount="1" stopTime="0.00" timeLoss="15.71" rerouteNo="0" devices="tripinfo_3.10" vType="paperVehicle" speedFactor="1.03" vaporized=""/>
    <tripinfo id="1.8" depart="300.00" departLane="nB_0" departPos="5.10" departSpeed="0.00" departDelay="0.00" arrival="435.00" arrivalLane="Bs_0" arrivalPos="492.80" arrivalSpeed="9.89" duration="135.00" routeLength="994.90" waitingTime="22.00" waitingCount="1" stopTime="0.00" timeLoss="34.82" rerouteNo="0" devices="tripinfo_1.8" vType="paperVehicle" speedFactor="0.96" vaporized=""/>
    <tripinfo id="4.5" depart="66.00" departLane="wO_0" departPos="5.10" departSpeed="0.00" departDelay="0.00" arrival="436.00" arrivalLane="De_0" arrivalPos="496.00" arrivalSpeed="9.38" duration="370.00" routeLength="2994.90" waitingTime="30.00" waitingCount="5" stopTime="0.00" timeLoss="69.88" rerouteNo="0" devices="tripinfo_4.5" vType="paperVehicle" speedFactor="1.01" vaporized=""/>
    <tripinfo id="1.9" depart="307.00" departLane="nB_0" departPos="5.10" departSpeed="0.00" departDelay="0.00" arrival="437.00" arrivalLane="Bs_0" arrivalPos="492.80" arrivalSpeed="8.77" duration="130.00" routeLength="994.90" waitingTime="16.00" waitingCount="1" stopTime="0.00" timeLoss="30.34" rerouteNo="0" devices="tripinfo_1.9" vType="paperVehicle" speedFactor="0.89" vaporized=""/>
    <tripinfo id="0.7" depart="329.00" departLane="nA_0" departPos="5.10" departSpeed="0.00" departDelay="0.00" arrival="438.00" arrivalLane="As_0" arrivalPos="492.80" arrivalSpeed="9.31" duration="109.00" routeLength="994.90" waitingTime="0.00" waitingCount="0" stopTime="0.00" timeLoss="8.65" rerouteNo="0" devices="tripinfo_0.7" vType="paperVehicle" speedFactor="1.18" vaporized=""/>
    <tripinfo id="5.22" depart="194.00" departLane="nO_0" departPos="5.10" departSpeed="0.00" departDelay="0.00" arrival="451.00" arrivalLane="Os_0" arrivalPos="492.80" arrivalSpeed="8.81" duration="257.00" routeLength="994.90" waitingTime="133.00" waitingCount="3" stopTime="0.00" timeLoss="156.72" rerouteNo="0" devices="tripinfo_5.22" vType="paperVehicle" speedFactor="0.91" vaporized=""/>
    <tripinfo id="5.23" depart="258.00" departLane="nO_0" departPos="5.10" departSpeed="0.00" departDelay="0.00" arrival="454.00" arrivalLane="Os_0" arrivalPos="492.80" arrivalSpeed="8.73" duration="196.00" routeLength="994.90" waitingTime="78.00" waitingCount="2" stopTime="0.00" timeLoss="95.71" rerouteNo="0" devices="tripinfo_5.23" vType="paperVehicle" speedFactor="1.02" vaporized=""/>
    <tripinfo id="5.24" depart="263.00" departLane="nO_0" departPos="5.10" departSpeed="0.00" departDelay="0.00" arrival="456.00" arrivalLane="Os_0" arrivalPos="492.80" arrivalSpeed="9.98" duration="193.00" routeLength="994.90" waitingTime="73.00" waitingCount="2" stopTime="0.00" timeLoss="92.80" rerouteNo="0" devices="tripinfo_5.24" vType="paperVehicle" speedFactor="0.98" vaporized=""/>
    <tripinfo id="1.10" depart="310.00" departLane="nB_0" departPos="5.10" departSpeed="0.00" departDelay="1.00" arrival="456.00" arrivalLane="Bs_0" arrivalPos="492.80" arrivalSpeed="9.18" duration="146.00" routeLength="994.90" waitingTime="27.00" waitingCount="2" stopTime="0.00" timeLoss="45.81" rerouteNo="0" devices="tripinfo_1.10" vType="paperVehicle" speedFactor="1.07" vaporized=""/>
    <tripinfo id="5.25" depart="274.00" departLane="nO_0" departPos="5.10" departSpeed="0.00" departDelay="0.00" arrival="458.00" arrivalLane="Os_0" arrivalPos="492.80" arrivalSpeed="8.71" duration="184.00" routeLength="994.90" waitingTime="63.00" waitingCount="2" stopTime="0.00" timeLoss="84.24" rerouteNo="0" devices="tripinfo_5.25" vType="paperVehicle" speedFactor="1.02" vaporized=""/>
    <tripinfo id="5.26" depart="279.00" departLane="nO_0" departPos="5.10" departSpeed="0.00" departDelay="0.00" arrival="460.00" arrivalLane="Os_0" arrivalPos="492.80" arrivalSpeed="9.33" duration="181.00" routeLength="994.90" waitingTime="59.00" waitingCount="2" stopTime="0.00" timeLoss="81.26" rerouteNo="0" devices="tripinfo_5.26" vType="paperVehicle" speedFactor="0.92" vaporized=""/>
    <tripinfo id="5.27" depart="285.00" departLane="nO_0" departPos="5.10" departSpeed="0.00" departDelay="0.00" arrival="462.00" arrivalLane="Os_0" arrivalPos="492.80" arrivalSpeed="9.77" duration="177.00" routeLength="994.90" waitingTime="58.00" waitingCount="1" stopTime="0.00" timeLoss="77.22" rerouteNo="0" devices="tripinfo_5.27" vType="paperVehicle" speedFactor="1.01" vaporized=""/>
    <tripinfo id="5.28" depart="313.00" departLane="nO_0" departPos="5.10" departSpeed="0.00" departDelay="0.00" arrival="464.00" arrivalLane="Os_0" arrivalPos="492.80" arrivalSpeed="9.34" duration="151.00" routeLength="994.90" waitingTime="36.00" waitingCount="1" stopTime="0.00" timeLoss="51.39" rerouteNo="0" devices="tripinfo_5.28" vType="paperVehicle" speedFactor="0.96" vaporized=""/>
    <tripinfo id="5.29" depart="316.00" departLane="nO_0" departPos="5.10" departSpeed="0.00" departDelay="0.00" arrival="466.00" arrivalLane="Os_0" arrivalPos="492.80" arrivalSpeed="9.07" duration="150.00" routeLength="994.90" waitingTime="34.00" waitingCount="1" stopTime="0.00" timeLoss="50.45" rerouteNo="0" devices="tripinfo_5.29" vType="paperVehicle" speedFactor="0.93" vaporized=""/>
    <tripinfo id="5.30" depart="325.00" departLane="nO_0" departPos="5.10" departSpeed="0.00" departDelay="0.00" arrival="469.00" arrivalLane="Os_0" arrivalPos="492.80" arrivalSpeed="9.68" duration="144.00" routeLength="994.90" waitingTime="28.00" waitingCount="1" stopTime="0.00" timeLoss="43.58" rerouteNo="0" devices="tripinfo_5.30" vType="paperVehicle" speedFactor="0.92" vaporized=""/>
    <tripinfo id="5.31" depart="366.00" departLane="nO_0" departPos="5.10" departSpeed="0.00" departDelay="0.00" arrival="474.00" arrivalLane="Os_0" arrivalPos="492.80" arrivalSpeed="9.91" duration="108.00" routeLength="994.90" waitingTime="0.00" waitingCount="0" stopTime="0.00" timeLoss="8.03" rerouteNo="0" devices="tripinfo_5.31" vType="paperVehicle" speedFactor="1.10" vaporized=""/>